
     Program PWSCF v.6.2 starts on 24Nov2021 at 21:25:20 

     This program is part of the open-source Quantum ESPRESSO suite
     for quantum simulation of materials; please cite
         "P. Giannozzi et al., J. Phys.:Condens. Matter 21 395502 (2009);
         "P. Giannozzi et al., J. Phys.:Condens. Matter 29 465901 (2017);
          URL http://www.quantum-espresso.org", 
     in publications or presentations arising from this work. More details at
     http://www.quantum-espresso.org/quote

     Parallel version (MPI & OpenMP), running on       1 processor cores
     Number of MPI processes:                 1
     Threads/MPI process:                     1

     MPI processes distributed on     1 nodes
     Reading input from espresso.pwi
Warning: card &CELL ignored
Warning: card / ignored

     Current dimensions of program PWSCF are:
     Max number of different atomic species (ntypx) = 10
     Max number of k-points (npk) =  40000
     Max angular momentum in pseudopotentials (lmaxx) =  3
               file Cu.pbe-dn-kjpaw_psl.1.0.0.UPF: wavefunction(s)  4S 3D renormalized

     Subspace diagonalization in iterative solution of the eigenvalue problem:
     a serial algorithm will be used

     Found symmetry operation: I + (  0.3333  0.0000  0.0000)
     This is a supercell, fractional translations are disabled

     G-vector sticks info
     --------------------
     sticks:   dense  smooth     PW     G-vecs:    dense   smooth      PW
     Sum        7291    2917    805              1258057   318283   45553



     bravais-lattice index     =            0
     lattice parameter (alat)  =      14.5648  a.u.
     unit-cell volume          =    6663.9742 (a.u.)^3
     number of atoms/cell      =           27
     number of atomic types    =            1
     number of electrons       =       297.00
     number of Kohn-Sham states=          179
     kinetic-energy cutoff     =      50.0000  Ry
     charge density cutoff     =     500.0000  Ry
     convergence threshold     =      1.0E-06
     mixing beta               =       0.7000
     number of iterations used =            8  plain     mixing
     Exchange-correlation      =  SLA  PW   PBX  PBC ( 1  4  3  4 0 0)
     nstep                     =           50


     celldm(1)=  14.564779  celldm(2)=   0.000000  celldm(3)=   0.000000
     celldm(4)=   0.000000  celldm(5)=   0.000000  celldm(6)=   0.000000

     crystal axes: (cart. coord. in units of alat)
               a(1) = (   1.000000   0.000000   0.000000 )  
               a(2) = (   0.500000   0.866025   0.000000 )  
               a(3) = (   0.000000   0.000000   2.490526 )  

     reciprocal axes: (cart. coord. in units 2 pi/alat)
               b(1) = (  1.000000 -0.577350  0.000000 )  
               b(2) = (  0.000000  1.154701  0.000000 )  
               b(3) = (  0.000000  0.000000  0.401522 )  


     PseudoPot. # 1 for Cu read from file:
     /home/harris.se/espresso/pseudos/Cu.pbe-dn-kjpaw_psl.1.0.0.UPF
     MD5 check sum: cfffd1f38ee05704b3e17f46f1730a6f
     Pseudo is Projector augmented-wave + core cor, Zval = 11.0
     Generated using "atomic" code by A. Dal Corso  v.6.3
     Shape of augmentation charge: PSQ
     Using radial grid of 1199 points,  6 beta functions with: 
                l(1) =   0
                l(2) =   0
                l(3) =   1
                l(4) =   1
                l(5) =   2
                l(6) =   2
     Q(r) pseudized with 0 coefficients 


     atomic species   valence    mass     pseudopotential
        Cu            11.00    63.54600     Cu( 1.00)

      6 Sym. Ops. (no inversion) found



   Cartesian axes

     site n.     atom                  positions (alat units)
         1           Cu  tau(   1) = (   0.1666667   0.0962250   0.9730972  )
         2           Cu  tau(   2) = (   0.5000000   0.0962250   0.9730972  )
         3           Cu  tau(   3) = (   0.8333333   0.0962250   0.9730972  )
         4           Cu  tau(   4) = (   0.3333333   0.3849002   0.9730972  )
         5           Cu  tau(   5) = (   0.6666667   0.3849002   0.9730972  )
         6           Cu  tau(   6) = (   1.0000000   0.3849002   0.9730972  )
         7           Cu  tau(   7) = (   0.5000000   0.6735753   0.9730972  )
         8           Cu  tau(   8) = (   0.8333333   0.6735753   0.9730972  )
         9           Cu  tau(   9) = (   1.1666667   0.6735753   0.9730972  )
        10           Cu  tau(  10) = (   0.0000000   0.1924501   1.2452628  )
        11           Cu  tau(  11) = (   0.3333333   0.1924501   1.2452628  )
        12           Cu  tau(  12) = (   0.6666667   0.1924501   1.2452628  )
        13           Cu  tau(  13) = (   0.1666667   0.4811252   1.2452628  )
        14           Cu  tau(  14) = (   0.5000000   0.4811252   1.2452628  )
        15           Cu  tau(  15) = (   0.8333333   0.4811252   1.2452628  )
        16           Cu  tau(  16) = (   0.3333333   0.7698004   1.2452628  )
        17           Cu  tau(  17) = (   0.6666667   0.7698004   1.2452628  )
        18           Cu  tau(  18) = (   1.0000000   0.7698004   1.2452628  )
        19           Cu  tau(  19) = (   0.0000000   0.0000000   1.5174283  )
        20           Cu  tau(  20) = (   0.3333333   0.0000000   1.5174283  )
        21           Cu  tau(  21) = (   0.6666667   0.0000000   1.5174283  )
        22           Cu  tau(  22) = (   0.1666667   0.2886751   1.5174283  )
        23           Cu  tau(  23) = (   0.5000000   0.2886751   1.5174283  )
        24           Cu  tau(  24) = (   0.8333333   0.2886751   1.5174283  )
        25           Cu  tau(  25) = (   0.3333333   0.5773503   1.5174283  )
        26           Cu  tau(  26) = (   0.6666667   0.5773503   1.5174283  )
        27           Cu  tau(  27) = (   1.0000000   0.5773503   1.5174283  )

     number of k points=     4  gaussian smearing, width (Ry)=  0.1000
                       cart. coord. in units 2pi/alat
        k(    1) = (   0.0000000   0.0000000   0.0000000), wk =   0.1250000
        k(    2) = (   0.0000000   0.2886751   0.0000000), wk =   0.7500000
        k(    3) = (   0.0000000  -0.5773503   0.0000000), wk =   0.3750000
        k(    4) = (   0.2500000  -0.7216878   0.0000000), wk =   0.7500000

     Dense  grid:  1258057 G-vectors     FFT dimensions: ( 108, 108, 270)

     Smooth grid:   318283 G-vectors     FFT dimensions: (  72,  72, 180)

     Estimated max dynamical RAM per process >       6.52 GB

     Initial potential from superposition of free atoms
     Check: negative starting charge=   -0.000838

     starting charge  296.99386, renormalised to  297.00000

     negative rho (up, down):  8.375E-04 0.000E+00
     Starting wfc are  243 randomized atomic wfcs
     Checking if some PAW data can be deallocated... 

     total cpu time spent up to now is      216.8 secs

     Self-consistent Calculation

     iteration #  1     ecut=    50.00 Ry     beta= 0.70
