
     Program PWSCF v.6.2 starts on 23Nov2021 at 15:37:14 

     This program is part of the open-source Quantum ESPRESSO suite
     for quantum simulation of materials; please cite
         "P. Giannozzi et al., J. Phys.:Condens. Matter 21 395502 (2009);
         "P. Giannozzi et al., J. Phys.:Condens. Matter 29 465901 (2017);
          URL http://www.quantum-espresso.org", 
     in publications or presentations arising from this work. More details at
     http://www.quantum-espresso.org/quote

     Parallel version (MPI & OpenMP), running on       1 processor cores
     Number of MPI processes:                 1
     Threads/MPI process:                     1

     MPI processes distributed on     1 nodes
     Reading input from espresso.pwi
Warning: card &CELL ignored
Warning: card / ignored

     Current dimensions of program PWSCF are:
     Max number of different atomic species (ntypx) = 10
     Max number of k-points (npk) =  40000
     Max angular momentum in pseudopotentials (lmaxx) =  3
               file C.pbe-n-kjpaw_psl.1.0.0.UPF: wavefunction(s)  2S 2P renormalized
               file O.pbe-n-kjpaw_psl.1.0.0.UPF: wavefunction(s)  2S 2P renormalized

     gamma-point specific algorithms are used

     Subspace diagonalization in iterative solution of the eigenvalue problem:
     a serial algorithm will be used


     G-vector sticks info
     --------------------
     sticks:   dense  smooth     PW     G-vecs:    dense   smooth      PW
     Sum       36229   14495   3623              4873537  1232825  154045



     bravais-lattice index     =            0
     lattice parameter (alat)  =      32.1253  a.u.
     unit-cell volume          =   25812.3798 (a.u.)^3
     number of atoms/cell      =            3
     number of atomic types    =            2
     number of electrons       =        16.00
     number of Kohn-Sham states=            8
     kinetic-energy cutoff     =      50.0000  Ry
     charge density cutoff     =     500.0000  Ry
     convergence threshold     =      1.0E-06
     mixing beta               =       0.7000
     number of iterations used =            8  plain     mixing
     Exchange-correlation      =  SLA  PW   PBX  PBC ( 1  4  3  4 0 0)
     nstep                     =           50


     celldm(1)=  32.125344  celldm(2)=   0.000000  celldm(3)=   0.000000
     celldm(4)=   0.000000  celldm(5)=   0.000000  celldm(6)=   0.000000

     crystal axes: (cart. coord. in units of alat)
               a(1) = (   1.000000   0.000000   0.000000 )  
               a(2) = (   0.000000   0.882353   0.000000 )  
               a(3) = (   0.000000   0.000000   0.882353 )  

     reciprocal axes: (cart. coord. in units 2 pi/alat)
               b(1) = (  1.000000  0.000000  0.000000 )  
               b(2) = (  0.000000  1.133333  0.000000 )  
               b(3) = (  0.000000  0.000000  1.133333 )  


     PseudoPot. # 1 for  C read from file:
     /home/harris.se/espresso/pseudos/C.pbe-n-kjpaw_psl.1.0.0.UPF
     MD5 check sum: 5f16ad9a65e90284d1d834d4ab3b0f7d
     Pseudo is Projector augmented-wave + core cor, Zval =  4.0
     Generated using "atomic" code by A. Dal Corso  v.6.3
     Shape of augmentation charge: PSQ
     Using radial grid of 1073 points,  4 beta functions with: 
                l(1) =   0
                l(2) =   0
                l(3) =   1
                l(4) =   1
     Q(r) pseudized with 0 coefficients 


     PseudoPot. # 2 for  O read from file:
     /home/harris.se/espresso/pseudos/O.pbe-n-kjpaw_psl.1.0.0.UPF
     MD5 check sum: e99d9cef9b487d1ca56f5b95ecd0fd7a
     Pseudo is Projector augmented-wave + core cor, Zval =  6.0
     Generated using "atomic" code by A. Dal Corso  v.6.3
     Shape of augmentation charge: PSQ
     Using radial grid of 1095 points,  4 beta functions with: 
                l(1) =   0
                l(2) =   0
                l(3) =   1
                l(4) =   1
     Q(r) pseudized with 0 coefficients 


     atomic species   valence    mass     pseudopotential
        C              4.00    12.01100      C( 1.00)
        O              6.00    15.99900      O( 1.00)

     16 Sym. Ops., with inversion, found



   Cartesian axes

     site n.     atom                  positions (alat units)
         1           C   tau(   1) = (   0.5000000   0.4411765   0.4411765  )
         2           O   tau(   2) = (   0.5588235   0.4411765   0.4411765  )
         3           O   tau(   3) = (   0.4411765   0.4411765   0.4411765  )

     number of k points=     1
                       cart. coord. in units 2pi/alat
        k(    1) = (   0.0000000   0.0000000   0.0000000), wk =   2.0000000

     Dense  grid:  2436769 G-vectors     FFT dimensions: ( 240, 216, 216)

     Smooth grid:   616413 G-vectors     FFT dimensions: ( 150, 128, 128)

     Estimated max dynamical RAM per process >       3.67 GB

     Initial potential from superposition of free atoms
     Check: negative starting charge=   -0.002513

     starting charge   15.99996, renormalised to   16.00000

     negative rho (up, down):  2.513E-03 0.000E+00
     Starting wfc are   12 randomized atomic wfcs
     Checking if some PAW data can be deallocated... 

     total cpu time spent up to now is       51.2 secs

     Self-consistent Calculation

     iteration #  1     ecut=    50.00 Ry     beta= 0.70
     Davidson diagonalization with overlap
     ethr =  1.00E-02,  avg # of iterations =  3.0

     negative rho (up, down):  3.658E-03 0.000E+00

     total cpu time spent up to now is       80.1 secs

     total energy              =    -101.14853084 Ry
     Harris-Foulkes estimate   =    -101.70988280 Ry
     estimated scf accuracy    <       0.77721193 Ry

     iteration #  2     ecut=    50.00 Ry     beta= 0.70
     Davidson diagonalization with overlap
     ethr =  4.86E-03,  avg # of iterations =  3.0

     negative rho (up, down):  3.727E-03 0.000E+00

     total cpu time spent up to now is      107.2 secs

     total energy              =    -101.34075897 Ry
     Harris-Foulkes estimate   =    -101.52221854 Ry
     estimated scf accuracy    <       0.32015207 Ry

     iteration #  3     ecut=    50.00 Ry     beta= 0.70
     Davidson diagonalization with overlap
     ethr =  2.00E-03,  avg # of iterations =  3.0

     negative rho (up, down):  3.637E-03 0.000E+00

     total cpu time spent up to now is      131.3 secs

     total energy              =    -101.35988366 Ry
     Harris-Foulkes estimate   =    -101.37607680 Ry
     estimated scf accuracy    <       0.02423995 Ry

     iteration #  4     ecut=    50.00 Ry     beta= 0.70
     Davidson diagonalization with overlap
     ethr =  1.51E-04,  avg # of iterations =  4.0

     negative rho (up, down):  3.925E-03 0.000E+00

     total cpu time spent up to now is      158.6 secs

     total energy              =    -101.42071204 Ry
     Harris-Foulkes estimate   =    -101.44561283 Ry
     estimated scf accuracy    <       0.09175463 Ry

     iteration #  5     ecut=    50.00 Ry     beta= 0.70
     Davidson diagonalization with overlap
     ethr =  1.51E-04,  avg # of iterations =  1.0

     negative rho (up, down):  4.052E-03 0.000E+00

     total cpu time spent up to now is      183.9 secs

     total energy              =    -101.38791332 Ry
     Harris-Foulkes estimate   =    -101.42161880 Ry
     estimated scf accuracy    <       0.05169067 Ry

     iteration #  6     ecut=    50.00 Ry     beta= 0.70
     Davidson diagonalization with overlap
     ethr =  1.51E-04,  avg # of iterations =  4.0

     negative rho (up, down):  3.832E-03 0.000E+00

     total cpu time spent up to now is      210.2 secs

     total energy              =    -101.41287087 Ry
     Harris-Foulkes estimate   =    -101.42547702 Ry
     estimated scf accuracy    <       0.02932257 Ry

     iteration #  7     ecut=    50.00 Ry     beta= 0.70
     Davidson diagonalization with overlap
     ethr =  1.51E-04,  avg # of iterations =  1.0

     negative rho (up, down):  3.818E-03 0.000E+00

     total cpu time spent up to now is      235.6 secs

     total energy              =    -101.40681420 Ry
     Harris-Foulkes estimate   =    -101.41355347 Ry
     estimated scf accuracy    <       0.01045225 Ry

     iteration #  8     ecut=    50.00 Ry     beta= 0.70
     Davidson diagonalization with overlap
     ethr =  6.53E-05,  avg # of iterations =  4.0

     negative rho (up, down):  3.867E-03 0.000E+00

     total cpu time spent up to now is      263.5 secs

     total energy              =    -101.41642887 Ry
     Harris-Foulkes estimate   =    -101.41913860 Ry
     estimated scf accuracy    <       0.00990178 Ry

     iteration #  9     ecut=    50.00 Ry     beta= 0.70
     Davidson diagonalization with overlap
     ethr =  6.19E-05,  avg # of iterations =  1.0

     negative rho (up, down):  3.883E-03 0.000E+00

     total cpu time spent up to now is      289.5 secs

     total energy              =    -101.41446091 Ry
     Harris-Foulkes estimate   =    -101.41650473 Ry
     estimated scf accuracy    <       0.00571211 Ry

     iteration # 10     ecut=    50.00 Ry     beta= 0.70
     Davidson diagonalization with overlap
     ethr =  3.57E-05,  avg # of iterations =  3.0

     negative rho (up, down):  3.866E-03 0.000E+00

     total cpu time spent up to now is      313.8 secs

     total energy              =    -101.41553481 Ry
     Harris-Foulkes estimate   =    -101.41560815 Ry
     estimated scf accuracy    <       0.00022416 Ry

     iteration # 11     ecut=    50.00 Ry     beta= 0.70
     Davidson diagonalization with overlap
     ethr =  1.40E-06,  avg # of iterations =  3.0

     negative rho (up, down):  3.856E-03 0.000E+00

     total cpu time spent up to now is      340.5 secs

     total energy              =    -101.41580797 Ry
     Harris-Foulkes estimate   =    -101.41580925 Ry
     estimated scf accuracy    <       0.00001039 Ry

     iteration # 12     ecut=    50.00 Ry     beta= 0.70
     Davidson diagonalization with overlap
     ethr =  6.49E-08,  avg # of iterations =  2.0

     negative rho (up, down):  3.853E-03 0.000E+00

     total cpu time spent up to now is      365.7 secs

     total energy              =    -101.41580899 Ry
     Harris-Foulkes estimate   =    -101.41580891 Ry
     estimated scf accuracy    <       0.00001125 Ry

     iteration # 13     ecut=    50.00 Ry     beta= 0.70
     Davidson diagonalization with overlap
     ethr =  6.49E-08,  avg # of iterations =  1.0

     negative rho (up, down):  3.854E-03 0.000E+00

     total cpu time spent up to now is      391.1 secs

     total energy              =    -101.41581498 Ry
     Harris-Foulkes estimate   =    -101.41580923 Ry
     estimated scf accuracy    <       0.00001079 Ry

     iteration # 14     ecut=    50.00 Ry     beta= 0.70
     Davidson diagonalization with overlap
     ethr =  6.49E-08,  avg # of iterations =  4.0

     negative rho (up, down):  3.855E-03 0.000E+00

     total cpu time spent up to now is      417.8 secs

     total energy              =    -101.41580783 Ry
     Harris-Foulkes estimate   =    -101.41582017 Ry
     estimated scf accuracy    <       0.00004390 Ry

     iteration # 15     ecut=    50.00 Ry     beta= 0.70
     Davidson diagonalization with overlap
     ethr =  6.49E-08,  avg # of iterations =  1.0

     negative rho (up, down):  3.855E-03 0.000E+00

     total cpu time spent up to now is      443.1 secs

     total energy              =    -101.41580506 Ry
     Harris-Foulkes estimate   =    -101.41580830 Ry
     estimated scf accuracy    <       0.00002523 Ry

     iteration # 16     ecut=    50.00 Ry     beta= 0.70
     Davidson diagonalization with overlap
     ethr =  6.49E-08,  avg # of iterations =  3.0

     negative rho (up, down):  3.854E-03 0.000E+00

     total cpu time spent up to now is      469.6 secs

     total energy              =    -101.41580751 Ry
     Harris-Foulkes estimate   =    -101.41580769 Ry
     estimated scf accuracy    <       0.00000800 Ry

     iteration # 17     ecut=    50.00 Ry     beta= 0.70
     Davidson diagonalization with overlap
     ethr =  5.00E-08,  avg # of iterations =  1.0

     negative rho (up, down):  3.854E-03 0.000E+00

     total cpu time spent up to now is      496.8 secs

     total energy              =    -101.41580835 Ry
     Harris-Foulkes estimate   =    -101.41580757 Ry
     estimated scf accuracy    <       0.00000787 Ry

     iteration # 18     ecut=    50.00 Ry     beta= 0.70
     Davidson diagonalization with overlap
     ethr =  4.92E-08,  avg # of iterations =  1.0

     negative rho (up, down):  3.854E-03 0.000E+00

     total cpu time spent up to now is      522.3 secs

     total energy              =    -101.41580391 Ry
     Harris-Foulkes estimate   =    -101.41580842 Ry
     estimated scf accuracy    <       0.00000866 Ry

     iteration # 19     ecut=    50.00 Ry     beta= 0.70
     Davidson diagonalization with overlap
     ethr =  4.92E-08,  avg # of iterations =  2.0

     negative rho (up, down):  3.853E-03 0.000E+00

     total cpu time spent up to now is      547.4 secs

     total energy              =    -101.41580296 Ry
     Harris-Foulkes estimate   =    -101.41580438 Ry
     estimated scf accuracy    <       0.00000198 Ry

     iteration # 20     ecut=    50.00 Ry     beta= 0.70
     Davidson diagonalization with overlap
     ethr =  1.24E-08,  avg # of iterations =  4.0

     negative rho (up, down):  3.853E-03 0.000E+00

     total cpu time spent up to now is      575.4 secs

     total energy              =    -101.41580645 Ry
     Harris-Foulkes estimate   =    -101.41580667 Ry
     estimated scf accuracy    <       0.00000460 Ry

     iteration # 21     ecut=    50.00 Ry     beta= 0.70
     Davidson diagonalization with overlap
     ethr =  1.24E-08,  avg # of iterations =  1.0

     negative rho (up, down):  3.852E-03 0.000E+00

     total cpu time spent up to now is      601.1 secs

     total energy              =    -101.41580506 Ry
     Harris-Foulkes estimate   =    -101.41580646 Ry
     estimated scf accuracy    <       0.00000422 Ry

     iteration # 22     ecut=    50.00 Ry     beta= 0.70
     Davidson diagonalization with overlap
     ethr =  1.24E-08,  avg # of iterations =  1.0

     negative rho (up, down):  3.852E-03 0.000E+00

     total cpu time spent up to now is      626.0 secs

     total energy              =    -101.41580470 Ry
     Harris-Foulkes estimate   =    -101.41580515 Ry
     estimated scf accuracy    <       0.00000184 Ry

     iteration # 23     ecut=    50.00 Ry     beta= 0.70
     Davidson diagonalization with overlap
     ethr =  1.15E-08,  avg # of iterations =  2.0

     negative rho (up, down):  3.852E-03 0.000E+00

     total cpu time spent up to now is      649.8 secs

     End of self-consistent calculation

          k = 0.0000 0.0000 0.0000 ( 77023 PWs)   bands (ev):

   -31.0592 -30.3231 -14.4396 -14.4396 -12.6952 -12.3995  -9.0686  -9.0686

     highest occupied level (ev):    -9.0686

!    total energy              =    -101.41580407 Ry
     Harris-Foulkes estimate   =    -101.41580485 Ry
     estimated scf accuracy    <       0.00000095 Ry

     total all-electron energy =      -376.873682 Ry

     The total energy is the sum of the following terms:

     one-electron contribution =    -207.83738029 Ry
     hartree contribution      =     106.43745962 Ry
     xc contribution           =     -20.09451565 Ry
     ewald contribution        =      45.47832893 Ry
     one-center paw contrib.   =     -25.39969668 Ry

     convergence has been achieved in  23 iterations

     negative rho (up, down):  3.852E-03 0.000E+00

     Forces acting on atoms (cartesian axes, Ry/au):

     atom    1 type  1   force =     0.00000000    0.00000000    0.00000000
     atom    2 type  2   force =     1.32243487    0.00000000    0.00000000
     atom    3 type  2   force =    -1.32243487    0.00000000    0.00000000

     Total force =     1.870205     Total SCF correction =     0.002896


     Computing stress (Cartesian axis) and pressure


     negative rho (up, down):  3.852E-03 0.000E+00
          total   stress  (Ry/bohr**3)                   (kbar)     P=    9.44
   0.00019333   0.00000000   0.00000000         28.44      0.00      0.00
   0.00000000  -0.00000041   0.00000000          0.00     -0.06      0.00
   0.00000000   0.00000000  -0.00000041          0.00      0.00     -0.06


     BFGS Geometry Optimization

     number of scf cycles    =   1
     number of bfgs steps    =   0

     energy   new            =    -101.4158040679 Ry

     new trust radius        =       0.5000000000 bohr
     new conv_thr            =       0.0000010000 Ry


ATOMIC_POSITIONS (angstrom)
C        8.500000000   7.500000000   7.500000000
O        9.764588604   7.500000000   7.500000000
O        7.235411396   7.500000000   7.500000000



     Writing output data file pwscf.save
     Check: negative starting charge=   -0.002513
     NEW-OLD atomic charge density approx. for the potential
     Check: negative starting charge=   -0.002524

     negative rho (up, down):  3.004E-03 0.000E+00

     total cpu time spent up to now is      844.9 secs

     Self-consistent Calculation

     iteration #  1     ecut=    50.00 Ry     beta= 0.70
     Davidson diagonalization with overlap
     ethr =  1.00E-06,  avg # of iterations = 12.0

     negative rho (up, down):  3.030E-03 0.000E+00

     total cpu time spent up to now is      879.8 secs

     total energy              =    -101.61394980 Ry
     Harris-Foulkes estimate   =    -102.07602182 Ry
     estimated scf accuracy    <       0.32167325 Ry

     iteration #  2     ecut=    50.00 Ry     beta= 0.70
     Davidson diagonalization with overlap
     ethr =  2.01E-03,  avg # of iterations =  2.0

     negative rho (up, down):  3.183E-03 0.000E+00

     total cpu time spent up to now is      904.6 secs

     total energy              =    -101.68981401 Ry
     Harris-Foulkes estimate   =    -101.72420974 Ry
     estimated scf accuracy    <       0.05513274 Ry

     iteration #  3     ecut=    50.00 Ry     beta= 0.70
     Davidson diagonalization with overlap
     ethr =  3.45E-04,  avg # of iterations =  3.0

     negative rho (up, down):  3.273E-03 0.000E+00

     total cpu time spent up to now is      931.9 secs

     total energy              =    -101.71845978 Ry
     Harris-Foulkes estimate   =    -101.72070762 Ry
     estimated scf accuracy    <       0.00363192 Ry

     iteration #  4     ecut=    50.00 Ry     beta= 0.70
     Davidson diagonalization with overlap
     ethr =  2.27E-05,  avg # of iterations =  3.0

     negative rho (up, down):  3.323E-03 0.000E+00

     total cpu time spent up to now is      957.6 secs

     total energy              =    -101.71854461 Ry
     Harris-Foulkes estimate   =    -101.71887414 Ry
     estimated scf accuracy    <       0.00053264 Ry

     iteration #  5     ecut=    50.00 Ry     beta= 0.70
     Davidson diagonalization with overlap
     ethr =  3.33E-06,  avg # of iterations =  4.0

     negative rho (up, down):  3.297E-03 0.000E+00

     total cpu time spent up to now is      984.6 secs

     total energy              =    -101.71917953 Ry
     Harris-Foulkes estimate   =    -101.71955848 Ry
     estimated scf accuracy    <       0.00118833 Ry

     iteration #  6     ecut=    50.00 Ry     beta= 0.70
     Davidson diagonalization with overlap
     ethr =  3.33E-06,  avg # of iterations =  1.0

     negative rho (up, down):  3.285E-03 0.000E+00

     total cpu time spent up to now is     1010.4 secs

     total energy              =    -101.71890192 Ry
     Harris-Foulkes estimate   =    -101.71920444 Ry
     estimated scf accuracy    <       0.00054911 Ry

     iteration #  7     ecut=    50.00 Ry     beta= 0.70
     Davidson diagonalization with overlap
     ethr =  3.33E-06,  avg # of iterations =  4.0

     negative rho (up, down):  3.299E-03 0.000E+00

     total cpu time spent up to now is     1038.3 secs

     total energy              =    -101.71914874 Ry
     Harris-Foulkes estimate   =    -101.71928421 Ry
     estimated scf accuracy    <       0.00047239 Ry

     iteration #  8     ecut=    50.00 Ry     beta= 0.70
     Davidson diagonalization with overlap
     ethr =  2.95E-06,  avg # of iterations =  1.0

     negative rho (up, down):  3.303E-03 0.000E+00

     total cpu time spent up to now is     1065.2 secs

     total energy              =    -101.71904828 Ry
     Harris-Foulkes estimate   =    -101.71915411 Ry
     estimated scf accuracy    <       0.00025318 Ry

     iteration #  9     ecut=    50.00 Ry     beta= 0.70
     Davidson diagonalization with overlap
     ethr =  1.58E-06,  avg # of iterations =  4.0

     negative rho (up, down):  3.296E-03 0.000E+00

     total cpu time spent up to now is     1092.1 secs

     total energy              =    -101.71923906 Ry
     Harris-Foulkes estimate   =    -101.71922668 Ry
     estimated scf accuracy    <       0.00018779 Ry

     iteration # 10     ecut=    50.00 Ry     beta= 0.70
     Davidson diagonalization with overlap
     ethr =  1.17E-06,  avg # of iterations =  1.0

     negative rho (up, down):  3.295E-03 0.000E+00

     total cpu time spent up to now is     1116.9 secs

     total energy              =    -101.71920485 Ry
     Harris-Foulkes estimate   =    -101.71923940 Ry
     estimated scf accuracy    <       0.00020936 Ry

     iteration # 11     ecut=    50.00 Ry     beta= 0.70
     Davidson diagonalization with overlap
     ethr =  1.17E-06,  avg # of iterations =  1.0

     negative rho (up, down):  3.295E-03 0.000E+00

     total cpu time spent up to now is     1141.6 secs

     total energy              =    -101.71918628 Ry
     Harris-Foulkes estimate   =    -101.71920592 Ry
     estimated scf accuracy    <       0.00015527 Ry

     iteration # 12     ecut=    50.00 Ry     beta= 0.70
     Davidson diagonalization with overlap
     ethr =  9.70E-07,  avg # of iterations =  1.0

     negative rho (up, down):  3.295E-03 0.000E+00

     total cpu time spent up to now is     1166.8 secs

     total energy              =    -101.71919077 Ry
     Harris-Foulkes estimate   =    -101.71918829 Ry
     estimated scf accuracy    <       0.00011449 Ry

     iteration # 13     ecut=    50.00 Ry     beta= 0.70
     Davidson diagonalization with overlap
     ethr =  7.16E-07,  avg # of iterations =  1.0

     negative rho (up, down):  3.295E-03 0.000E+00

     total cpu time spent up to now is     1193.5 secs

     total energy              =    -101.71918391 Ry
     Harris-Foulkes estimate   =    -101.71919156 Ry
     estimated scf accuracy    <       0.00011344 Ry

     iteration # 14     ecut=    50.00 Ry     beta= 0.70
     Davidson diagonalization with overlap
     ethr =  7.09E-07,  avg # of iterations =  1.0

     negative rho (up, down):  3.296E-03 0.000E+00

     total cpu time spent up to now is     1219.0 secs

     total energy              =    -101.71917828 Ry
     Harris-Foulkes estimate   =    -101.71918565 Ry
     estimated scf accuracy    <       0.00008867 Ry

     iteration # 15     ecut=    50.00 Ry     beta= 0.70
     Davidson diagonalization with overlap
     ethr =  5.54E-07,  avg # of iterations =  1.0

     negative rho (up, down):  3.296E-03 0.000E+00

     total cpu time spent up to now is     1244.1 secs

     total energy              =    -101.71917540 Ry
     Harris-Foulkes estimate   =    -101.71917952 Ry
     estimated scf accuracy    <       0.00007229 Ry

     iteration # 16     ecut=    50.00 Ry     beta= 0.70
     Davidson diagonalization with overlap
     ethr =  4.52E-07,  avg # of iterations =  3.0

     negative rho (up, down):  3.297E-03 0.000E+00

     total cpu time spent up to now is     1271.4 secs

     total energy              =    -101.71918283 Ry
     Harris-Foulkes estimate   =    -101.71918208 Ry
     estimated scf accuracy    <       0.00001991 Ry

     iteration # 17     ecut=    50.00 Ry     beta= 0.70
     Davidson diagonalization with overlap
     ethr =  1.24E-07,  avg # of iterations =  1.0

     negative rho (up, down):  3.297E-03 0.000E+00

     total cpu time spent up to now is     1297.6 secs

     total energy              =    -101.71916984 Ry
     Harris-Foulkes estimate   =    -101.71918299 Ry
     estimated scf accuracy    <       0.00001982 Ry

     iteration # 18     ecut=    50.00 Ry     beta= 0.70
     Davidson diagonalization with overlap
     ethr =  1.24E-07,  avg # of iterations =  4.0

     negative rho (up, down):  3.300E-03 0.000E+00

     total cpu time spent up to now is     1322.7 secs

     total energy              =    -101.71917613 Ry
     Harris-Foulkes estimate   =    -101.71918454 Ry
     estimated scf accuracy    <       0.00002344 Ry

     iteration # 19     ecut=    50.00 Ry     beta= 0.70
     Davidson diagonalization with overlap
     ethr =  1.24E-07,  avg # of iterations =  1.0

     negative rho (up, down):  3.300E-03 0.000E+00

     total cpu time spent up to now is     1347.5 secs

     total energy              =    -101.71917129 Ry
     Harris-Foulkes estimate   =    -101.71917679 Ry
     estimated scf accuracy    <       0.00001050 Ry

     iteration # 20     ecut=    50.00 Ry     beta= 0.70
     Davidson diagonalization with overlap
     ethr =  6.56E-08,  avg # of iterations =  4.0

     negative rho (up, down):  3.298E-03 0.000E+00

     total cpu time spent up to now is     1374.9 secs

     total energy              =    -101.71918153 Ry
     Harris-Foulkes estimate   =    -101.71918302 Ry
     estimated scf accuracy    <       0.00001587 Ry

     iteration # 21     ecut=    50.00 Ry     beta= 0.70
     Davidson diagonalization with overlap
     ethr =  6.56E-08,  avg # of iterations =  1.0

     negative rho (up, down):  3.298E-03 0.000E+00

     total cpu time spent up to now is     1399.8 secs

     total energy              =    -101.71918051 Ry
     Harris-Foulkes estimate   =    -101.71918157 Ry
     estimated scf accuracy    <       0.00001336 Ry

     iteration # 22     ecut=    50.00 Ry     beta= 0.70
     Davidson diagonalization with overlap
     ethr =  6.56E-08,  avg # of iterations =  1.0

     negative rho (up, down):  3.297E-03 0.000E+00

     total cpu time spent up to now is     1425.0 secs

     total energy              =    -101.71917497 Ry
     Harris-Foulkes estimate   =    -101.71918062 Ry
     estimated scf accuracy    <       0.00001079 Ry

     iteration # 23     ecut=    50.00 Ry     beta= 0.70
     Davidson diagonalization with overlap
     ethr =  6.56E-08,  avg # of iterations =  4.0

     negative rho (up, down):  3.299E-03 0.000E+00

     total cpu time spent up to now is     1452.8 secs

     total energy              =    -101.71917998 Ry
     Harris-Foulkes estimate   =    -101.71918038 Ry
     estimated scf accuracy    <       0.00000419 Ry

     iteration # 24     ecut=    50.00 Ry     beta= 0.70
     Davidson diagonalization with overlap
     ethr =  2.62E-08,  avg # of iterations =  3.0

     negative rho (up, down):  3.299E-03 0.000E+00

     total cpu time spent up to now is     1480.1 secs

     total energy              =    -101.71917983 Ry
     Harris-Foulkes estimate   =    -101.71918041 Ry
     estimated scf accuracy    <       0.00000475 Ry

     iteration # 25     ecut=    50.00 Ry     beta= 0.70
     Davidson diagonalization with overlap
     ethr =  2.62E-08,  avg # of iterations =  1.0

     negative rho (up, down):  3.299E-03 0.000E+00

     total cpu time spent up to now is     1504.5 secs

     total energy              =    -101.71917860 Ry
     Harris-Foulkes estimate   =    -101.71917993 Ry
     estimated scf accuracy    <       0.00000308 Ry

     iteration # 26     ecut=    50.00 Ry     beta= 0.70
     Davidson diagonalization with overlap
     ethr =  1.93E-08,  avg # of iterations =  3.0

     negative rho (up, down):  3.299E-03 0.000E+00

     total cpu time spent up to now is     1529.0 secs

     End of self-consistent calculation

          k = 0.0000 0.0000 0.0000 ( 77023 PWs)   bands (ev):

   -28.0497 -27.0820 -14.2456 -12.5850 -11.8633 -11.8633  -8.9519  -8.9519

     highest occupied level (ev):    -8.9519

!    total energy              =    -101.71917898 Ry
     Harris-Foulkes estimate   =    -101.71917913 Ry
     estimated scf accuracy    <       0.00000020 Ry

     total all-electron energy =      -377.177057 Ry

     The total energy is the sum of the following terms:

     one-electron contribution =    -181.64690532 Ry
     hartree contribution      =      93.34188891 Ry
     xc contribution           =     -18.96435020 Ry
     ewald contribution        =      30.90862510 Ry
     one-center paw contrib.   =     -25.35843747 Ry

     convergence has been achieved in  26 iterations

     negative rho (up, down):  3.299E-03 0.000E+00

     Forces acting on atoms (cartesian axes, Ry/au):

     atom    1 type  1   force =     0.00000000    0.00000000    0.00000000
     atom    2 type  2   force =    -0.26168355    0.00000000    0.00000000
     atom    3 type  2   force =     0.26168355   -0.00000000    0.00000000

     Total force =     0.370076     Total SCF correction =     0.001275


     Computing stress (Cartesian axis) and pressure


     negative rho (up, down):  3.299E-03 0.000E+00
          total   stress  (Ry/bohr**3)                   (kbar)     P=   -2.39
  -0.00004864   0.00000000   0.00000000         -7.15      0.00      0.00
   0.00000000  -0.00000005   0.00000000          0.00     -0.01      0.00
   0.00000000   0.00000000  -0.00000005          0.00      0.00     -0.01


     number of scf cycles    =   2
     number of bfgs steps    =   1

     energy   old            =    -101.4158040679 Ry
     energy   new            =    -101.7191789820 Ry

     CASE: energy  _new < energy  _old

     new trust radius        =       0.0825959565 bohr
     new conv_thr            =       0.0000010000 Ry


ATOMIC_POSITIONS (angstrom)
C        8.500000000   7.500000000   7.500000000
O        9.720880707   7.500000000   7.500000000
O        7.279119293   7.500000000   7.500000000



     Writing output data file pwscf.save
     Check: negative starting charge=   -0.002524
     NEW-OLD atomic charge density approx. for the potential
     Check: negative starting charge=   -0.002544

     negative rho (up, down):  3.057E-03 0.000E+00

     total cpu time spent up to now is     1722.2 secs

     Self-consistent Calculation

     iteration #  1     ecut=    50.00 Ry     beta= 0.70
     Davidson diagonalization with overlap
     ethr =  1.00E-06,  avg # of iterations =  6.0

     negative rho (up, down):  3.326E-03 0.000E+00

     total cpu time spent up to now is     1751.3 secs

     total energy              =    -101.75256164 Ry
     Harris-Foulkes estimate   =    -101.77592844 Ry
     estimated scf accuracy    <       0.00574733 Ry

     iteration #  2     ecut=    50.00 Ry     beta= 0.70
     Davidson diagonalization with overlap
     ethr =  3.59E-05,  avg # of iterations =  3.0

     negative rho (up, down):  3.380E-03 0.000E+00

     total cpu time spent up to now is     1778.8 secs

     total energy              =    -101.75381170 Ry
     Harris-Foulkes estimate   =    -101.75417451 Ry
     estimated scf accuracy    <       0.00060388 Ry

     iteration #  3     ecut=    50.00 Ry     beta= 0.70
     Davidson diagonalization with overlap
     ethr =  3.77E-06,  avg # of iterations =  5.0

     negative rho (up, down):  3.402E-03 0.000E+00

     total cpu time spent up to now is     1805.4 secs

     total energy              =    -101.75420686 Ry
     Harris-Foulkes estimate   =    -101.75437439 Ry
     estimated scf accuracy    <       0.00037854 Ry

     iteration #  4     ecut=    50.00 Ry     beta= 0.70
     Davidson diagonalization with overlap
     ethr =  2.37E-06,  avg # of iterations =  3.0

     negative rho (up, down):  3.401E-03 0.000E+00

     total cpu time spent up to now is     1831.7 secs

     total energy              =    -101.75423844 Ry
     Harris-Foulkes estimate   =    -101.75427585 Ry
     estimated scf accuracy    <       0.00006865 Ry

     iteration #  5     ecut=    50.00 Ry     beta= 0.70
     Davidson diagonalization with overlap
     ethr =  4.29E-07,  avg # of iterations =  4.0

     negative rho (up, down):  3.397E-03 0.000E+00

     total cpu time spent up to now is     1858.5 secs

     total energy              =    -101.75433069 Ry
     Harris-Foulkes estimate   =    -101.75436516 Ry
     estimated scf accuracy    <       0.00019607 Ry

     iteration #  6     ecut=    50.00 Ry     beta= 0.70
     Davidson diagonalization with overlap
     ethr =  4.29E-07,  avg # of iterations =  1.0

     negative rho (up, down):  3.396E-03 0.000E+00

     total cpu time spent up to now is     1882.7 secs

     total energy              =    -101.75425491 Ry
     Harris-Foulkes estimate   =    -101.75433264 Ry
     estimated scf accuracy    <       0.00014170 Ry

     iteration #  7     ecut=    50.00 Ry     beta= 0.70
     Davidson diagonalization with overlap
     ethr =  4.29E-07,  avg # of iterations =  4.0

     negative rho (up, down):  3.402E-03 0.000E+00

     total cpu time spent up to now is     1909.3 secs

     total energy              =    -101.75430329 Ry
     Harris-Foulkes estimate   =    -101.75432382 Ry
     estimated scf accuracy    <       0.00004119 Ry

     iteration #  8     ecut=    50.00 Ry     beta= 0.70
     Davidson diagonalization with overlap
     ethr =  2.57E-07,  avg # of iterations =  1.0

     negative rho (up, down):  3.403E-03 0.000E+00

     total cpu time spent up to now is     1933.6 secs

     total energy              =    -101.75429959 Ry
     Harris-Foulkes estimate   =    -101.75430556 Ry
     estimated scf accuracy    <       0.00001055 Ry

     iteration #  9     ecut=    50.00 Ry     beta= 0.70
     Davidson diagonalization with overlap
     ethr =  6.59E-08,  avg # of iterations =  4.0

     negative rho (up, down):  3.401E-03 0.000E+00

     total cpu time spent up to now is     1959.9 secs

     total energy              =    -101.75431813 Ry
     Harris-Foulkes estimate   =    -101.75432124 Ry
     estimated scf accuracy    <       0.00003064 Ry

     iteration # 10     ecut=    50.00 Ry     beta= 0.70
     Davidson diagonalization with overlap
     ethr =  6.59E-08,  avg # of iterations =  1.0

     negative rho (up, down):  3.400E-03 0.000E+00

     total cpu time spent up to now is     1984.8 secs

     total energy              =    -101.75431742 Ry
     Harris-Foulkes estimate   =    -101.75431816 Ry
     estimated scf accuracy    <       0.00002576 Ry

     iteration # 11     ecut=    50.00 Ry     beta= 0.70
     Davidson diagonalization with overlap
     ethr =  6.59E-08,  avg # of iterations =  1.0

     negative rho (up, down):  3.400E-03 0.000E+00

     total cpu time spent up to now is     2007.8 secs

     total energy              =    -101.75431993 Ry
     Harris-Foulkes estimate   =    -101.75431747 Ry
     estimated scf accuracy    <       0.00002446 Ry

     iteration # 12     ecut=    50.00 Ry     beta= 0.70
     Davidson diagonalization with overlap
     ethr =  6.59E-08,  avg # of iterations =  1.0

     negative rho (up, down):  3.400E-03 0.000E+00

     total cpu time spent up to now is     2031.4 secs

     total energy              =    -101.75431348 Ry
     Harris-Foulkes estimate   =    -101.75431994 Ry
     estimated scf accuracy    <       0.00002734 Ry

     iteration # 13     ecut=    50.00 Ry     beta= 0.70
     Davidson diagonalization with overlap
     ethr =  6.59E-08,  avg # of iterations =  1.0

     negative rho (up, down):  3.400E-03 0.000E+00

     total cpu time spent up to now is     2054.4 secs

     total energy              =    -101.75430148 Ry
     Harris-Foulkes estimate   =    -101.75431369 Ry
     estimated scf accuracy    <       0.00001701 Ry

     iteration # 14     ecut=    50.00 Ry     beta= 0.70
     Davidson diagonalization with overlap
     ethr =  6.59E-08,  avg # of iterations =  4.0

     negative rho (up, down):  3.403E-03 0.000E+00

     total cpu time spent up to now is     2079.8 secs

     total energy              =    -101.75432296 Ry
     Harris-Foulkes estimate   =    -101.75432564 Ry
     estimated scf accuracy    <       0.00004947 Ry

     iteration # 15     ecut=    50.00 Ry     beta= 0.70
     Davidson diagonalization with overlap
     ethr =  6.59E-08,  avg # of iterations =  1.0

     negative rho (up, down):  3.404E-03 0.000E+00

     total cpu time spent up to now is     2102.6 secs

     total energy              =    -101.75432924 Ry
     Harris-Foulkes estimate   =    -101.75432299 Ry
     estimated scf accuracy    <       0.00004476 Ry

     iteration # 16     ecut=    50.00 Ry     beta= 0.70
     Davidson diagonalization with overlap
     ethr =  6.59E-08,  avg # of iterations =  1.0

     negative rho (up, down):  3.404E-03 0.000E+00

     total cpu time spent up to now is     2125.3 secs

     total energy              =    -101.75431660 Ry
     Harris-Foulkes estimate   =    -101.75432932 Ry
     estimated scf accuracy    <       0.00005432 Ry

     iteration # 17     ecut=    50.00 Ry     beta= 0.70
     Davidson diagonalization with overlap
     ethr =  6.59E-08,  avg # of iterations =  1.0

     negative rho (up, down):  3.404E-03 0.000E+00

     total cpu time spent up to now is     2150.8 secs

     total energy              =    -101.75431861 Ry
     Harris-Foulkes estimate   =    -101.75431687 Ry
     estimated scf accuracy    <       0.00003534 Ry

     iteration # 18     ecut=    50.00 Ry     beta= 0.70
     Davidson diagonalization with overlap
     ethr =  6.59E-08,  avg # of iterations =  1.0

     negative rho (up, down):  3.404E-03 0.000E+00

     total cpu time spent up to now is     2175.0 secs

     total energy              =    -101.75430991 Ry
     Harris-Foulkes estimate   =    -101.75431871 Ry
     estimated scf accuracy    <       0.00003744 Ry

     iteration # 19     ecut=    50.00 Ry     beta= 0.70
     Davidson diagonalization with overlap
     ethr =  6.59E-08,  avg # of iterations =  3.0

     negative rho (up, down):  3.404E-03 0.000E+00

     total cpu time spent up to now is     2199.0 secs

     total energy              =    -101.75430467 Ry
     Harris-Foulkes estimate   =    -101.75431126 Ry
     estimated scf accuracy    <       0.00001622 Ry

     iteration # 20     ecut=    50.00 Ry     beta= 0.70
     Davidson diagonalization with overlap
     ethr =  6.59E-08,  avg # of iterations =  4.0

     negative rho (up, down):  3.402E-03 0.000E+00

     total cpu time spent up to now is     2223.3 secs

     total energy              =    -101.75431333 Ry
     Harris-Foulkes estimate   =    -101.75431563 Ry
     estimated scf accuracy    <       0.00000745 Ry

     iteration # 21     ecut=    50.00 Ry     beta= 0.70
     Davidson diagonalization with overlap
     ethr =  4.66E-08,  avg # of iterations =  1.0

     negative rho (up, down):  3.402E-03 0.000E+00

     total cpu time spent up to now is     2246.1 secs

     total energy              =    -101.75431397 Ry
     Harris-Foulkes estimate   =    -101.75431350 Ry
     estimated scf accuracy    <       0.00000383 Ry

     iteration # 22     ecut=    50.00 Ry     beta= 0.70
     Davidson diagonalization with overlap
     ethr =  2.39E-08,  avg # of iterations =  1.0

     negative rho (up, down):  3.402E-03 0.000E+00

     total cpu time spent up to now is     2270.0 secs

     total energy              =    -101.75431674 Ry
     Harris-Foulkes estimate   =    -101.75431408 Ry
     estimated scf accuracy    <       0.00000477 Ry

     iteration # 23     ecut=    50.00 Ry     beta= 0.70
     Davidson diagonalization with overlap
     ethr =  2.39E-08,  avg # of iterations =  3.0

     negative rho (up, down):  3.401E-03 0.000E+00

     total cpu time spent up to now is     2294.5 secs

     total energy              =    -101.75431818 Ry
     Harris-Foulkes estimate   =    -101.75431764 Ry
     estimated scf accuracy    <       0.00001288 Ry

     iteration # 24     ecut=    50.00 Ry     beta= 0.70
     Davidson diagonalization with overlap
     ethr =  2.39E-08,  avg # of iterations =  1.0

     negative rho (up, down):  3.401E-03 0.000E+00

     total cpu time spent up to now is     2318.9 secs

     total energy              =    -101.75431672 Ry
     Harris-Foulkes estimate   =    -101.75431825 Ry
     estimated scf accuracy    <       0.00001398 Ry

     iteration # 25     ecut=    50.00 Ry     beta= 0.70
     Davidson diagonalization with overlap
     ethr =  2.39E-08,  avg # of iterations =  1.0

     negative rho (up, down):  3.401E-03 0.000E+00

     total cpu time spent up to now is     2344.8 secs

     total energy              =    -101.75431387 Ry
     Harris-Foulkes estimate   =    -101.75431677 Ry
     estimated scf accuracy    <       0.00001199 Ry

     iteration # 26     ecut=    50.00 Ry     beta= 0.70
     Davidson diagonalization with overlap
     ethr =  2.39E-08,  avg # of iterations =  1.0

     negative rho (up, down):  3.401E-03 0.000E+00

     total cpu time spent up to now is     2370.2 secs

     total energy              =    -101.75431279 Ry
     Harris-Foulkes estimate   =    -101.75431403 Ry
     estimated scf accuracy    <       0.00000681 Ry

     iteration # 27     ecut=    50.00 Ry     beta= 0.70
     Davidson diagonalization with overlap
     ethr =  2.39E-08,  avg # of iterations =  1.0

     negative rho (up, down):  3.401E-03 0.000E+00

     total cpu time spent up to now is     2395.2 secs

     total energy              =    -101.75431112 Ry
     Harris-Foulkes estimate   =    -101.75431305 Ry
     estimated scf accuracy    <       0.00000396 Ry

     iteration # 28     ecut=    50.00 Ry     beta= 0.70
     Davidson diagonalization with overlap
     ethr =  2.39E-08,  avg # of iterations =  4.0

     negative rho (up, down):  3.402E-03 0.000E+00

     total cpu time spent up to now is     2421.3 secs

     total energy              =    -101.75431602 Ry
     Harris-Foulkes estimate   =    -101.75431547 Ry
     estimated scf accuracy    <       0.00000716 Ry

     iteration # 29     ecut=    50.00 Ry     beta= 0.70
     Davidson diagonalization with overlap
     ethr =  2.39E-08,  avg # of iterations =  1.0

     negative rho (up, down):  3.402E-03 0.000E+00

     total cpu time spent up to now is     2445.1 secs

     total energy              =    -101.75431412 Ry
     Harris-Foulkes estimate   =    -101.75431603 Ry
     estimated scf accuracy    <       0.00000801 Ry

     iteration # 30     ecut=    50.00 Ry     beta= 0.70
     Davidson diagonalization with overlap
     ethr =  2.39E-08,  avg # of iterations =  1.0

     negative rho (up, down):  3.402E-03 0.000E+00

     total cpu time spent up to now is     2467.9 secs

     total energy              =    -101.75431297 Ry
     Harris-Foulkes estimate   =    -101.75431424 Ry
     estimated scf accuracy    <       0.00000431 Ry

     iteration # 31     ecut=    50.00 Ry     beta= 0.70
     Davidson diagonalization with overlap
     ethr =  2.39E-08,  avg # of iterations =  2.0

     negative rho (up, down):  3.402E-03 0.000E+00

     total cpu time spent up to now is     2490.6 secs

     total energy              =    -101.75431372 Ry
     Harris-Foulkes estimate   =    -101.75431331 Ry
     estimated scf accuracy    <       0.00000115 Ry

     iteration # 32     ecut=    50.00 Ry     beta= 0.70
     Davidson diagonalization with overlap
     ethr =  7.17E-09,  avg # of iterations =  3.0

     negative rho (up, down):  3.402E-03 0.000E+00

     total cpu time spent up to now is     2515.5 secs

     End of self-consistent calculation

          k = 0.0000 0.0000 0.0000 ( 77023 PWs)   bands (ev):

   -28.5403 -27.5461 -14.0138 -12.5873 -12.1971 -12.1971  -8.9818  -8.9818

     highest occupied level (ev):    -8.9818

!    total energy              =    -101.75431372 Ry
     Harris-Foulkes estimate   =    -101.75431408 Ry
     estimated scf accuracy    <       0.00000042 Ry

     total all-electron energy =      -377.212191 Ry

     The total energy is the sum of the following terms:

     one-electron contribution =    -185.33448869 Ry
     hartree contribution      =      95.17215569 Ry
     xc contribution           =     -19.11015798 Ry
     ewald contribution        =      32.87779672 Ry
     one-center paw contrib.   =     -25.35961946 Ry

     convergence has been achieved in  32 iterations

     negative rho (up, down):  3.402E-03 0.000E+00

     Forces acting on atoms (cartesian axes, Ry/au):

     atom    1 type  1   force =     0.00000000    0.00000000    0.00000000
     atom    2 type  2   force =    -0.15725843    0.00000000    0.00000000
     atom    3 type  2   force =     0.15725843    0.00000000    0.00000000

     Total force =     0.222397     Total SCF correction =     0.001797


     Computing stress (Cartesian axis) and pressure


     negative rho (up, down):  3.402E-03 0.000E+00
          total   stress  (Ry/bohr**3)                   (kbar)     P=   -1.39
  -0.00002816   0.00000000   0.00000000         -4.14      0.00      0.00
   0.00000000  -0.00000005   0.00000000          0.00     -0.01      0.00
   0.00000000   0.00000000  -0.00000005          0.00      0.00     -0.01


     number of scf cycles    =   3
     number of bfgs steps    =   2

     energy   old            =    -101.7191789820 Ry
     energy   new            =    -101.7543137181 Ry

     CASE: energy  _new < energy  _old

     new trust radius        =       0.0908555521 bohr
     new conv_thr            =       0.0000010000 Ry


ATOMIC_POSITIONS (angstrom)
C        8.500000000   7.500000000   7.500000000
O        9.672802019   7.500000000   7.500000000
O        7.327197981   7.500000000   7.500000000



     Writing output data file pwscf.save
     Check: negative starting charge=   -0.002544
     NEW-OLD atomic charge density approx. for the potential
     Check: negative starting charge=   -0.002507

     negative rho (up, down):  3.014E-03 0.000E+00

     total cpu time spent up to now is     2709.0 secs

     Self-consistent Calculation

     iteration #  1     ecut=    50.00 Ry     beta= 0.70
     Davidson diagonalization with overlap
     ethr =  1.00E-06,  avg # of iterations =  6.0

     negative rho (up, down):  3.336E-03 0.000E+00

     total cpu time spent up to now is     2738.1 secs

     total energy              =    -101.76643319 Ry
     Harris-Foulkes estimate   =    -101.79421652 Ry
     estimated scf accuracy    <       0.00829855 Ry

     iteration #  2     ecut=    50.00 Ry     beta= 0.70
     Davidson diagonalization with overlap
     ethr =  5.19E-05,  avg # of iterations =  3.0

     negative rho (up, down):  3.404E-03 0.000E+00

     total cpu time spent up to now is     2764.5 secs

     total energy              =    -101.76811282 Ry
     Harris-Foulkes estimate   =    -101.76851522 Ry
     estimated scf accuracy    <       0.00064313 Ry

     iteration #  3     ecut=    50.00 Ry     beta= 0.70
     Davidson diagonalization with overlap
     ethr =  4.02E-06,  avg # of iterations =  5.0

     negative rho (up, down):  3.431E-03 0.000E+00

     total cpu time spent up to now is     2791.4 secs

     total energy              =    -101.76883054 Ry
     Harris-Foulkes estimate   =    -101.76914712 Ry
     estimated scf accuracy    <       0.00075782 Ry

     iteration #  4     ecut=    50.00 Ry     beta= 0.70
     Davidson diagonalization with overlap
     ethr =  4.02E-06,  avg # of iterations =  2.0

     negative rho (up, down):  3.423E-03 0.000E+00

     total cpu time spent up to now is     2817.0 secs

     total energy              =    -101.76869823 Ry
     Harris-Foulkes estimate   =    -101.76887287 Ry
     estimated scf accuracy    <       0.00022836 Ry

     iteration #  5     ecut=    50.00 Ry     beta= 0.70
     Davidson diagonalization with overlap
     ethr =  1.43E-06,  avg # of iterations =  5.0

     negative rho (up, down):  3.424E-03 0.000E+00

     total cpu time spent up to now is     2843.6 secs

     total energy              =    -101.76900609 Ry
     Harris-Foulkes estimate   =    -101.76914040 Ry
     estimated scf accuracy    <       0.00059595 Ry

     iteration #  6     ecut=    50.00 Ry     beta= 0.70
     Davidson diagonalization with overlap
     ethr =  1.43E-06,  avg # of iterations =  1.0

     negative rho (up, down):  3.427E-03 0.000E+00

     total cpu time spent up to now is     2868.5 secs

     total energy              =    -101.76884724 Ry
     Harris-Foulkes estimate   =    -101.76901225 Ry
     estimated scf accuracy    <       0.00035653 Ry

     iteration #  7     ecut=    50.00 Ry     beta= 0.70
     Davidson diagonalization with overlap
     ethr =  1.43E-06,  avg # of iterations =  4.0

     negative rho (up, down):  3.432E-03 0.000E+00

     total cpu time spent up to now is     2895.0 secs

     total energy              =    -101.76895178 Ry
     Harris-Foulkes estimate   =    -101.76895535 Ry
     estimated scf accuracy    <       0.00001915 Ry

     iteration #  8     ecut=    50.00 Ry     beta= 0.70
     Davidson diagonalization with overlap
     ethr =  1.20E-07,  avg # of iterations =  3.0

     negative rho (up, down):  3.433E-03 0.000E+00

     total cpu time spent up to now is     2922.1 secs

     total energy              =    -101.76895019 Ry
     Harris-Foulkes estimate   =    -101.76895489 Ry
     estimated scf accuracy    <       0.00001259 Ry

     iteration #  9     ecut=    50.00 Ry     beta= 0.70
     Davidson diagonalization with overlap
     ethr =  7.87E-08,  avg # of iterations =  1.0

     negative rho (up, down):  3.434E-03 0.000E+00

     total cpu time spent up to now is     2947.1 secs

     total energy              =    -101.76894898 Ry
     Harris-Foulkes estimate   =    -101.76895066 Ry
     estimated scf accuracy    <       0.00000435 Ry

     iteration # 10     ecut=    50.00 Ry     beta= 0.70
     Davidson diagonalization with overlap
     ethr =  2.72E-08,  avg # of iterations =  4.0

     negative rho (up, down):  3.433E-03 0.000E+00

     total cpu time spent up to now is     2975.0 secs

     total energy              =    -101.76895121 Ry
     Harris-Foulkes estimate   =    -101.76895321 Ry
     estimated scf accuracy    <       0.00000330 Ry

     iteration # 11     ecut=    50.00 Ry     beta= 0.70
     Davidson diagonalization with overlap
     ethr =  2.06E-08,  avg # of iterations =  5.0

     negative rho (up, down):  3.433E-03 0.000E+00

     total cpu time spent up to now is     3000.5 secs

     total energy              =    -101.76895224 Ry
     Harris-Foulkes estimate   =    -101.76895264 Ry
     estimated scf accuracy    <       0.00000105 Ry

     iteration # 12     ecut=    50.00 Ry     beta= 0.70
     Davidson diagonalization with overlap
     ethr =  6.58E-09,  avg # of iterations =  2.0

     negative rho (up, down):  3.433E-03 0.000E+00

     total cpu time spent up to now is     3024.6 secs

     End of self-consistent calculation

          k = 0.0000 0.0000 0.0000 ( 77023 PWs)   bands (ev):

   -29.0978 -28.0967 -13.7467 -12.6001 -12.6001 -12.5752  -9.0111  -9.0111

     highest occupied level (ev):    -9.0111

!    total energy              =    -101.76895207 Ry
     Harris-Foulkes estimate   =    -101.76895232 Ry
     estimated scf accuracy    <       0.00000029 Ry

     total all-electron energy =      -377.226830 Ry

     The total energy is the sum of the following terms:

     one-electron contribution =    -189.65628285 Ry
     hartree contribution      =      97.32331232 Ry
     xc contribution           =     -19.28765552 Ry
     ewald contribution        =      35.21451505 Ry
     one-center paw contrib.   =     -25.36284106 Ry

     convergence has been achieved in  12 iterations

     negative rho (up, down):  3.433E-03 0.000E+00

     Forces acting on atoms (cartesian axes, Ry/au):

     atom    1 type  1   force =     0.00000000    0.00000000    0.00000000
     atom    2 type  2   force =     0.00584288    0.00000000    0.00000000
     atom    3 type  2   force =    -0.00584288    0.00000000    0.00000000

     Total force =     0.008263     Total SCF correction =     0.001737
     SCF correction compared to forces is large: reduce conv_thr to get better values


     Computing stress (Cartesian axis) and pressure


     negative rho (up, down):  3.433E-03 0.000E+00
          total   stress  (Ry/bohr**3)                   (kbar)     P=    0.05
   0.00000095   0.00000000   0.00000000          0.14      0.00      0.00
   0.00000000   0.00000000   0.00000000          0.00      0.00      0.00
   0.00000000   0.00000000   0.00000000          0.00      0.00      0.00


     number of scf cycles    =   4
     number of bfgs steps    =   3

     energy   old            =    -101.7543137181 Ry
     energy   new            =    -101.7689520671 Ry

     CASE: energy  _new < energy  _old

     new trust radius        =       0.0032547760 bohr
     new conv_thr            =       0.0000000584 Ry


ATOMIC_POSITIONS (angstrom)
C        8.500000000   7.500000000   7.500000000
O        9.674524372   7.500000000   7.500000000
O        7.325475628   7.500000000   7.500000000



     Writing output data file pwscf.save
     Check: negative starting charge=   -0.002507
     NEW-OLD atomic charge density approx. for the potential
     Check: negative starting charge=   -0.002508

     negative rho (up, down):  3.438E-03 0.000E+00

     total cpu time spent up to now is     3214.8 secs

     Self-consistent Calculation

     iteration #  1     ecut=    50.00 Ry     beta= 0.70
     Davidson diagonalization with overlap
     ethr =  1.00E-06,  avg # of iterations =  3.0

     negative rho (up, down):  3.432E-03 0.000E+00

     total cpu time spent up to now is     3238.6 secs

     total energy              =    -101.76895730 Ry
     Harris-Foulkes estimate   =    -101.76871541 Ry
     estimated scf accuracy    <       0.00001626 Ry

     iteration #  2     ecut=    50.00 Ry     beta= 0.70
     Davidson diagonalization with overlap
     ethr =  1.02E-07,  avg # of iterations =  4.0

     negative rho (up, down):  3.433E-03 0.000E+00

     total cpu time spent up to now is     3262.9 secs

     total energy              =    -101.76896184 Ry
     Harris-Foulkes estimate   =    -101.76897264 Ry
     estimated scf accuracy    <       0.00002401 Ry

     iteration #  3     ecut=    50.00 Ry     beta= 0.70
     Davidson diagonalization with overlap
     ethr =  1.02E-07,  avg # of iterations =  1.0

     negative rho (up, down):  3.434E-03 0.000E+00

     total cpu time spent up to now is     3287.2 secs

     total energy              =    -101.76895638 Ry
     Harris-Foulkes estimate   =    -101.76896266 Ry
     estimated scf accuracy    <       0.00000787 Ry

     iteration #  4     ecut=    50.00 Ry     beta= 0.70
     Davidson diagonalization with overlap
     ethr =  4.92E-08,  avg # of iterations =  4.0

     negative rho (up, down):  3.430E-03 0.000E+00

     total cpu time spent up to now is     3311.8 secs

     total energy              =    -101.76896239 Ry
     Harris-Foulkes estimate   =    -101.76898113 Ry
     estimated scf accuracy    <       0.00005729 Ry

     iteration #  5     ecut=    50.00 Ry     beta= 0.70
     Davidson diagonalization with overlap
     ethr =  4.92E-08,  avg # of iterations =  4.0

     negative rho (up, down):  3.430E-03 0.000E+00

     total cpu time spent up to now is     3336.5 secs

     total energy              =    -101.76896516 Ry
     Harris-Foulkes estimate   =    -101.76896721 Ry
     estimated scf accuracy    <       0.00000589 Ry

     iteration #  6     ecut=    50.00 Ry     beta= 0.70
     Davidson diagonalization with overlap
     ethr =  3.68E-08,  avg # of iterations =  3.0

     negative rho (up, down):  3.431E-03 0.000E+00

     total cpu time spent up to now is     3359.6 secs

     total energy              =    -101.76896558 Ry
     Harris-Foulkes estimate   =    -101.76896596 Ry
     estimated scf accuracy    <       0.00000170 Ry

     iteration #  7     ecut=    50.00 Ry     beta= 0.70
     Davidson diagonalization with overlap
     ethr =  1.06E-08,  avg # of iterations =  4.0

     negative rho (up, down):  3.431E-03 0.000E+00

     total cpu time spent up to now is     3383.7 secs

     total energy              =    -101.76896641 Ry
     Harris-Foulkes estimate   =    -101.76896640 Ry
     estimated scf accuracy    <       0.00000007 Ry

     iteration #  8     ecut=    50.00 Ry     beta= 0.70
     Davidson diagonalization with overlap
     ethr =  4.30E-10,  avg # of iterations =  4.0

     negative rho (up, down):  3.432E-03 0.000E+00

     total cpu time spent up to now is     3408.0 secs

     total energy              =    -101.76896642 Ry
     Harris-Foulkes estimate   =    -101.76896647 Ry
     estimated scf accuracy    <       0.00000015 Ry

     iteration #  9     ecut=    50.00 Ry     beta= 0.70
     Davidson diagonalization with overlap
     ethr =  4.30E-10,  avg # of iterations =  1.0

     negative rho (up, down):  3.432E-03 0.000E+00

     total cpu time spent up to now is     3431.7 secs

     total energy              =    -101.76896639 Ry
     Harris-Foulkes estimate   =    -101.76896642 Ry
     estimated scf accuracy    <       0.00000006 Ry

     iteration # 10     ecut=    50.00 Ry     beta= 0.70
     Davidson diagonalization with overlap
     ethr =  3.94E-10,  avg # of iterations =  4.0

     negative rho (up, down):  3.431E-03 0.000E+00

     total cpu time spent up to now is     3457.7 secs

     total energy              =    -101.76896644 Ry
     Harris-Foulkes estimate   =    -101.76896645 Ry
     estimated scf accuracy    <       0.00000007 Ry

     iteration # 11     ecut=    50.00 Ry     beta= 0.70
     Davidson diagonalization with overlap
     ethr =  3.94E-10,  avg # of iterations =  1.0

     negative rho (up, down):  3.431E-03 0.000E+00

     total cpu time spent up to now is     3483.2 secs

     total energy              =    -101.76896642 Ry
     Harris-Foulkes estimate   =    -101.76896644 Ry
     estimated scf accuracy    <       0.00000006 Ry

     iteration # 12     ecut=    50.00 Ry     beta= 0.70
     Davidson diagonalization with overlap
     ethr =  3.94E-10,  avg # of iterations =  1.0

     negative rho (up, down):  3.431E-03 0.000E+00

     total cpu time spent up to now is     3505.6 secs

     End of self-consistent calculation

          k = 0.0000 0.0000 0.0000 ( 77023 PWs)   bands (ev):

   -29.0784 -28.0770 -13.7566 -12.5857 -12.5857 -12.5759  -9.0101  -9.0101

     highest occupied level (ev):    -9.0101

!    total energy              =    -101.76896640 Ry
     Harris-Foulkes estimate   =    -101.76896642 Ry
     estimated scf accuracy    <       0.00000002 Ry

     total all-electron energy =      -377.226844 Ry

     The total energy is the sum of the following terms:

     one-electron contribution =    -189.49620542 Ry
     hartree contribution      =      97.24311341 Ry
     xc contribution           =     -19.28066951 Ry
     ewald contribution        =      35.12748207 Ry
     one-center paw contrib.   =     -25.36268696 Ry

     convergence has been achieved in  12 iterations

     negative rho (up, down):  3.431E-03 0.000E+00

     Forces acting on atoms (cartesian axes, Ry/au):

     atom    1 type  1   force =     0.00000000    0.00000000    0.00000000
     atom    2 type  2   force =    -0.00135439    0.00000000    0.00000000
     atom    3 type  2   force =     0.00135439    0.00000000    0.00000000

     Total force =     0.001915     Total SCF correction =     0.000385
     SCF correction compared to forces is large: reduce conv_thr to get better values


     Computing stress (Cartesian axis) and pressure


     negative rho (up, down):  3.431E-03 0.000E+00
          total   stress  (Ry/bohr**3)                   (kbar)     P=   -0.02
  -0.00000032   0.00000000   0.00000000         -0.05      0.00      0.00
   0.00000000  -0.00000007   0.00000000          0.00     -0.01      0.00
   0.00000000   0.00000000  -0.00000007          0.00      0.00     -0.01


     number of scf cycles    =   5
     number of bfgs steps    =   4

     energy   old            =    -101.7689520671 Ry
     energy   new            =    -101.7689664032 Ry

     CASE: energy  _new < energy  _old

     new trust radius        =       0.0006124861 bohr
     new conv_thr            =       0.0000000100 Ry


ATOMIC_POSITIONS (angstrom)
C        8.500000000   7.500000000   7.500000000
O        9.674200259   7.500000000   7.500000000
O        7.325799741   7.500000000   7.500000000



     Writing output data file pwscf.save
     Check: negative starting charge=   -0.002508
     NEW-OLD atomic charge density approx. for the potential
     Check: negative starting charge=   -0.002507

     negative rho (up, down):  3.430E-03 0.000E+00

     total cpu time spent up to now is     3694.5 secs

     Self-consistent Calculation

     iteration #  1     ecut=    50.00 Ry     beta= 0.70
     Davidson diagonalization with overlap
     ethr =  1.00E-06,  avg # of iterations =  2.0

     Threshold (ethr) on eigenvalues was too large:
     Diagonalizing with lowered threshold

     Davidson diagonalization with overlap
     ethr =  4.61E-09,  avg # of iterations =  2.0

     negative rho (up, down):  3.432E-03 0.000E+00

     total cpu time spent up to now is     3730.0 secs

     total energy              =    -101.76896682 Ry
     Harris-Foulkes estimate   =    -101.76901918 Ry
     estimated scf accuracy    <       0.00000067 Ry

     iteration #  2     ecut=    50.00 Ry     beta= 0.70
     Davidson diagonalization with overlap
     ethr =  4.20E-09,  avg # of iterations =  4.0

     negative rho (up, down):  3.431E-03 0.000E+00

     total cpu time spent up to now is     3756.9 secs

     total energy              =    -101.76896698 Ry
     Harris-Foulkes estimate   =    -101.76896743 Ry
     estimated scf accuracy    <       0.00000101 Ry

     iteration #  3     ecut=    50.00 Ry     beta= 0.70
     Davidson diagonalization with overlap
     ethr =  4.20E-09,  avg # of iterations =  1.0

     negative rho (up, down):  3.431E-03 0.000E+00

     total cpu time spent up to now is     3780.7 secs

     total energy              =    -101.76896677 Ry
     Harris-Foulkes estimate   =    -101.76896701 Ry
     estimated scf accuracy    <       0.00000032 Ry

     iteration #  4     ecut=    50.00 Ry     beta= 0.70
     Davidson diagonalization with overlap
     ethr =  2.02E-09,  avg # of iterations =  4.0

     negative rho (up, down):  3.432E-03 0.000E+00

     total cpu time spent up to now is     3806.9 secs

     total energy              =    -101.76896711 Ry
     Harris-Foulkes estimate   =    -101.76896773 Ry
     estimated scf accuracy    <       0.00000213 Ry

     iteration #  5     ecut=    50.00 Ry     beta= 0.70
     Davidson diagonalization with overlap
     ethr =  2.02E-09,  avg # of iterations =  3.0

     negative rho (up, down):  3.432E-03 0.000E+00

     total cpu time spent up to now is     3831.4 secs

     total energy              =    -101.76896703 Ry
     Harris-Foulkes estimate   =    -101.76896715 Ry
     estimated scf accuracy    <       0.00000102 Ry

     iteration #  6     ecut=    50.00 Ry     beta= 0.70
     Davidson diagonalization with overlap
     ethr =  2.02E-09,  avg # of iterations =  4.0

     negative rho (up, down):  3.432E-03 0.000E+00

     total cpu time spent up to now is     3854.7 secs

     total energy              =    -101.76896710 Ry
     Harris-Foulkes estimate   =    -101.76896718 Ry
     estimated scf accuracy    <       0.00000020 Ry

     iteration #  7     ecut=    50.00 Ry     beta= 0.70
     Davidson diagonalization with overlap
     ethr =  1.22E-09,  avg # of iterations =  3.0

     negative rho (up, down):  3.432E-03 0.000E+00

     total cpu time spent up to now is     3879.3 secs

     total energy              =    -101.76896715 Ry
     Harris-Foulkes estimate   =    -101.76896716 Ry
     estimated scf accuracy    <       0.00000001 Ry

     iteration #  8     ecut=    50.00 Ry     beta= 0.70
     Davidson diagonalization with overlap
     ethr =  6.90E-11,  avg # of iterations =  5.0

     negative rho (up, down):  3.432E-03 0.000E+00

     total cpu time spent up to now is     3903.4 secs

     total energy              =    -101.76896718 Ry
     Harris-Foulkes estimate   =    -101.76896719 Ry
     estimated scf accuracy    <       0.00000006 Ry

     iteration #  9     ecut=    50.00 Ry     beta= 0.70
     Davidson diagonalization with overlap
     ethr =  6.90E-11,  avg # of iterations =  1.0

     negative rho (up, down):  3.432E-03 0.000E+00

     total cpu time spent up to now is     3925.2 secs

     total energy              =    -101.76896717 Ry
     Harris-Foulkes estimate   =    -101.76896719 Ry
     estimated scf accuracy    <       0.00000005 Ry

     iteration # 10     ecut=    50.00 Ry     beta= 0.70
     Davidson diagonalization with overlap
     ethr =  6.90E-11,  avg # of iterations =  5.0

     negative rho (up, down):  3.432E-03 0.000E+00

     total cpu time spent up to now is     3946.9 secs

     End of self-consistent calculation

          k = 0.0000 0.0000 0.0000 ( 77023 PWs)   bands (ev):

   -29.0820 -28.0806 -13.7546 -12.5884 -12.5884 -12.5756  -9.0101  -9.0101

     highest occupied level (ev):    -9.0101

!    total energy              =    -101.76896717 Ry
     Harris-Foulkes estimate   =    -101.76896718 Ry
     estimated scf accuracy    <          4.7E-09 Ry

     total all-electron energy =      -377.226845 Ry

     The total energy is the sum of the following terms:

     one-electron contribution =    -189.52617243 Ry
     hartree contribution      =      97.25801589 Ry
     xc contribution           =     -19.28194017 Ry
     ewald contribution        =      35.14384039 Ry
     one-center paw contrib.   =     -25.36271085 Ry

     convergence has been achieved in  10 iterations

     negative rho (up, down):  3.432E-03 0.000E+00

     Forces acting on atoms (cartesian axes, Ry/au):

     atom    1 type  1   force =     0.00000000    0.00000000    0.00000000
     atom    2 type  2   force =     0.00000501    0.00000000    0.00000000
     atom    3 type  2   force =    -0.00000501    0.00000000    0.00000000

     Total force =     0.000007     Total SCF correction =     0.000173
     SCF correction compared to forces is large: reduce conv_thr to get better values


     Computing stress (Cartesian axis) and pressure


     negative rho (up, down):  3.432E-03 0.000E+00
          total   stress  (Ry/bohr**3)                   (kbar)     P=   -0.01
  -0.00000010   0.00000000   0.00000000         -0.01      0.00      0.00
   0.00000000  -0.00000007   0.00000000          0.00     -0.01      0.00
   0.00000000   0.00000000  -0.00000007          0.00      0.00     -0.01


     bfgs converged in   6 scf cycles and   5 bfgs steps
     (criteria: energy <  1.0E-04 Ry, force <  1.0E-03 Ry/Bohr)

     End of BFGS Geometry Optimization

     Final energy   =    -101.7689671733 Ry
Begin final coordinates

ATOMIC_POSITIONS (angstrom)
C        8.500000000   7.500000000   7.500000000
O        9.674200259   7.500000000   7.500000000
O        7.325799741   7.500000000   7.500000000
End final coordinates



     Writing output data file pwscf.save

     init_run     :     48.82s CPU     50.80s WALL (       1 calls)
     electrons    :   2684.51s CPU   2937.24s WALL (       6 calls)
     update_pot   :    197.74s CPU    202.09s WALL (       5 calls)
     forces       :    253.60s CPU    262.73s WALL (       6 calls)
     stress       :    580.32s CPU    599.23s WALL (       6 calls)

     Called by init_run:
     wfcinit      :      1.35s CPU      1.47s WALL (       1 calls)
     potinit      :     18.44s CPU     19.33s WALL (       1 calls)

     Called by electrons:
     c_bands      :    316.35s CPU    319.55s WALL (     116 calls)
     sum_band     :    879.60s CPU    972.25s WALL (     116 calls)
     v_of_rho     :    819.62s CPU    886.63s WALL (     121 calls)
     newd         :    468.04s CPU    546.77s WALL (     121 calls)
     PAW_pot      :     18.56s CPU     18.62s WALL (     126 calls)
     mix_rho      :    150.02s CPU    158.51s WALL (     116 calls)

     Called by c_bands:
     init_us_2    :      6.13s CPU      6.16s WALL (     238 calls)
     regterg      :    309.34s CPU    312.50s WALL (     116 calls)

     Called by sum_band:
     sum_band:bec :      0.00s CPU      0.00s WALL (     121 calls)
     addusdens    :    614.57s CPU    690.26s WALL (     116 calls)

     Called by *egterg:
     h_psi        :    268.29s CPU    271.29s WALL (     415 calls)
     s_psi        :     10.79s CPU     10.81s WALL (     415 calls)
     g_psi        :      0.99s CPU      0.99s WALL (     298 calls)
     rdiaghg      :      0.05s CPU      0.06s WALL (     408 calls)

     Called by h_psi:
     h_psi:pot    :    267.18s CPU    270.18s WALL (     415 calls)
     h_psi:calbec :     10.74s CPU     10.78s WALL (     415 calls)
     vloc_psi     :    245.60s CPU    248.54s WALL (     415 calls)
     add_vuspsi   :     10.83s CPU     10.85s WALL (     415 calls)

     General routines
     calbec       :     15.63s CPU     15.68s WALL (     566 calls)
     fft          :    975.10s CPU   1048.56s WALL (    2071 calls)
     ffts         :     32.14s CPU     32.33s WALL (     237 calls)
     fftw         :    238.37s CPU    241.53s WALL (    3128 calls)
     interpolate  :    157.70s CPU    174.84s WALL (     237 calls)

     Parallel routines
     fft_scatt_xy :    256.20s CPU    256.69s WALL (    5436 calls)
     fft_scatt_yz :    208.11s CPU    208.57s WALL (    5436 calls)

     PWSCF        :     1h 3m CPU        1h 8m WALL


   This run was terminated on:  16:45:19  23Nov2021            

=------------------------------------------------------------------------------=
   JOB DONE.
=------------------------------------------------------------------------------=
